VARIABLES = "X" "temp" "u" "rho" "POSF10325" "C2H4" "CH4" "H2" "C3H6" "C4H81" "IC4H8" "C6H6" "C6H5CH3" "H" "O" "OH" "HO2" "H2O" "H2O2" "O2" "CH3" "CH2O" "CO" "CO2" "C2H2" "C2H6" "CH2CO" "AC3H5" "C6H5" "C6H5CH2" "C6H4O2" "C6H5CHO" "N2"
 ZONE I=111 FORMAT=POINT this line is garbage
0                         300                       0.355948774698292         1.23604033771084          0.0125722906711483        -5.80821340290907e-16     9.83885389114414e-17      2.21524291549289e-11      3.39309458109373e-17      1.80074402962925e-16      -2.8993704570612e-18      -3.00930998445386e-17     1.16781894474079e-15      5.73420456394576e-15      -1.23942364969065e-15     1.24694011715452e-16      3.90034588443759e-17      -2.31470021883941e-16     9.90111979135813e-16      0.207442796073048         -1.75445883426102e-15     1.4717954704168e-16       -8.35744605336672e-15     -6.43660538399339e-16     8.78409943235594e-17      -5.238799753637e-17       -7.40929172680885e-17     -2.60024065951842e-16     -1.52653267085671e-16     -2.03320486012623e-15     -1.25846236050335e-19     8.16895864402317e-16      0.779984913233648         
0.0204545454545455        300.000000000126          0.355948775388975         1.23604033531243          0.0125722906509698        1.49965709575417e-14      4.49412937096051e-16      2.13056895596836e-09      2.71116541938429e-15      1.80872254456303e-16      1.33613178261811e-15      1.0305474822239e-15       2.03587126356974e-15      3.80024377424233e-20      -1.19878833648372e-15     2.2443737544923e-20       1.42970591851244e-14      9.82827452073652e-15      9.91052418895735e-16      0.207442795654543         1.50229214827219e-15      1.73152656941119e-16      -1.27193811076524e-15     -1.48690235912162e-16     8.80658863288119e-17      -4.92431399122634e-17     -7.40813660237653e-17     -2.60870625325447e-16     -2.95813592747178e-17     -2.03425895075304e-15     -1.23304412107083e-16     8.17949366649514e-16      0.779984911563871         
0.0284090909090909        300.000000001034          0.355948793406968         1.23604027274454          0.0125722901246321        1.52742778285673e-14      6.66561100751649e-15      5.71421784983408e-08      2.71471556154367e-15      1.81144352495526e-16      1.33785250031099e-15      1.03190725932855e-15      2.03699516006051e-15      -7.11713519415161e-23     -1.18197709729705e-15     4.06405380319419e-23      1.44518819871524e-14      2.95660680795096e-13      1.07669268086503e-15      0.207442784735747         1.53603308974777e-15      1.9937773683663e-16       2.86599420913396e-14      -1.28016649721234e-17     1.15684530394172e-16      -4.16607166806875e-17     -7.39386836198637e-17     -2.61161504039669e-16     -1.13033569309996e-17     -2.03466831195331e-15     -1.41597524803976e-16     8.18358551786634e-16      0.779984867997073         
0.0318181818181818        300.000000040353          0.355949005309764         1.2360395369077           0.0125722839356007        2.98841917426819e-14      2.57423369836755e-13      7.04005508923601e-07      2.7262564033511e-15       1.81256455527334e-16      1.33974455383099e-15      1.03321547475987e-15      2.03803823226307e-15      3.79315892277519e-24      -1.16844348799497e-15     7.69046324940225e-23      2.16730060397634e-14      1.18224658169585e-11      4.86713489654245e-15      0.207442656343564         3.21062308749725e-15      1.19227162358862e-15      1.34258295038958e-12      7.87559305217305e-15      1.61905683494179e-15      4.40574915376135e-16      -6.45254844907817e-17     -2.61269293365426e-16     -6.67801037628542e-18     -2.03484263718419e-15     -1.46226040112681e-16     8.18533427240857e-16      0.779984355701827         
0.0335227272727273        300.000000944398          0.355950372520916         1.23603478925979          0.0125722440269059        4.67804095134287e-13      5.63988444621502e-12      4.87516788896013e-06      3.08774073207637e-15      1.81851671488816e-16      1.36183245074441e-15      1.04253063353081e-15      2.04472755982832e-15      4.9479533661722e-22       -1.07332980269318e-15     8.62687859125038e-22      1.90264174895191e-13      2.59037866029934e-10      9.39897540025942e-14      0.207441828394018         3.90920616795467e-14      3.18022773887123e-14      3.19845308240436e-11      2.5045695618566e-13       4.49950717246416e-14      1.61432679289295e-14      2.74067504422194e-16      -2.6127738074881e-16      -4.96057033094858e-18     -2.03492325748551e-15     -1.47919394855047e-16     8.1861954070631e-16       0.779981052113384         
0.034375                  300.000011563191          0.355955131581988         1.23601826367963          0.0125721053792503        7.14642542476666e-12      6.47524787927907e-11      1.93663098583394e-05      1.03674217377426e-14      1.95408167451396e-16      1.70066149791968e-15      1.11859246715692e-15      2.08509013371719e-15      5.71029576922225e-21      -3.64438819863899e-16     9.57173219958957e-21      2.20028268311147e-12      2.97184610079886e-09      1.16401099819714e-12      0.20743895152521          4.31746873715156e-13      5.13435978188164e-13      3.96943446849487e-10      4.04097837967917e-12      6.8158933874053e-13       2.75580437474353e-13      6.44946229605174e-15      -2.60442651050217e-16     -4.2282531219692e-18      -2.03494034904583e-15     -1.47893222668426e-16     8.18698783473942e-16      0.779969573335664         
0.0346590909090909        300.000050483879          0.355960943548306         1.23599808254274          0.0125719369856465        3.85663752460956e-11      2.68055194758764e-10      3.69665320072551e-05      5.66672827630833e-14      2.96639011344452e-16      3.89838103124185e-15      1.46123548475703e-15      2.18996358767837e-15      2.40824884814013e-20      1.38930516675045e-15      4.10682257927344e-20      9.67292596164688e-12      1.2294615015858e-08       5.16882441181961e-12      0.207435455728637         1.77735366895963e-12      2.84891025429399e-12      1.75247268455506e-09      2.22924672630132e-11      3.56770145122871e-12      1.59364551855771e-12      4.0964732880193e-14       -2.54969760680713e-16     -3.99781536183537e-18     -2.03491022602457e-15     -1.41153608127417e-16     8.19152744217974e-16      0.779955626352971         
0.0349431818181818        300.000283903911          0.355974612394401         1.23595062222672          0.0125715460176543        2.76011772033441e-10      1.4185123449079e-09       7.78307383521944e-05      5.25795593539215e-13      1.48266478735121e-15      2.89417977980886e-14      5.36458755452785e-15      3.15568412558631e-15      1.43614503592578e-19      8.78762891898517e-15      2.7091498642843e-19       5.5083337569595e-11       6.5013206827322e-08       2.96535103017651e-11      0.207427329509902         9.36637258485495e-12      2.10060617496939e-11      9.98223154172246e-09      1.63239349844129e-10      2.46376472523984e-11      1.22971957091479e-11      3.47586866192429e-13      -1.99599630410315e-16     -3.7791873605016e-18      -2.03466409265631e-15     -4.17011750776536e-17     8.25996602594124e-16      0.779923216727924         
0.0350852272727273        300.000837977935          0.355988613594336         1.23590201170619          0.0125711567636682        9.78596130746623e-10      4.00365465704272e-09      0.000118517840997547      2.36883941257231e-12      6.84192980826486e-15      1.40527938900039e-13      2.38320162385822e-14      7.33197034420455e-15      5.17813377497247e-19      2.14199123581015e-14      1.13251726143249e-18      1.64242651395455e-10      1.833952648314e-07        8.88488667065415e-11      0.207419215921709         2.63736967072225e-11      7.62116634700474e-11      2.97477095550155e-08      5.890278582968e-10        8.49537117172644e-11      4.62235289226078e-11      1.4073813743993e-12       1.72522505875445e-17      -3.67166394434611e-18     -2.03360853345193e-15     5.05232382010303e-16      8.65794798369119e-16      0.779890890268541         
0.0352272727272727        300.002775978109          0.356013104581373         1.2358169910712           0.0125705103263856        3.98464065094983e-09      1.26105841694979e-08      0.000186093553100291      1.26449742880541e-11      4.09170052564242e-14      8.46230943314226e-13      1.52071282768187e-13      3.72508274422313e-14      2.88162726178548e-18      5.43931913793812e-14      7.66335338155676e-18      5.50495673846302e-10      5.77295145976176e-07      2.993954699226e-10        0.207405666322905         8.28453681320582e-11      3.18410681116437e-10      9.96300859457735e-08      2.44596358186243e-09      3.3527564367211e-10       2.00929096537091e-10      6.64461508199782e-12      1.22194160636619e-15      -3.55904570372014e-18     -2.02583846433987e-15     4.69076346785651e-15      1.18682208433142e-15      0.779837032023404         
0.0353693181818182        300.009552799916          0.356058098867333         1.23566082357102          0.0125694369358248        1.68456562170043e-08      4.1265449922859e-08       0.000298323317592135      6.99388952296779e-11      2.57562907169536e-13      5.31205282242154e-12      1.04731573713113e-12      2.56688809366287e-13      2.38798588878585e-17      1.40490605544259e-13      7.24015689816765e-17      1.91719239453423e-09      1.88789431618118e-06      1.04822618342495e-09      0.207382896021363         2.70349792612731e-10      1.38091517421961e-09      3.46696259223023e-07      1.05440653878605e-08      1.37411741042453e-09      9.06382190488215e-10      3.25246582403899e-11      7.91482830030952e-15      -3.39573331253685e-18     -1.96574286980556e-15     3.67155527790647e-14      3.77462924515573e-15      0.779747033472706         
0.0355113636363636        300.033239345036          0.356147898823865         1.23534926118674          0.0125676552036357        7.1864200789977e-08       1.36657442213319e-07      0.000484697590619326      3.89249324478503e-10      1.63483084808326e-12      3.3528988065353e-11       7.27190438912096e-12      1.84954185291608e-12      2.4703550185694e-16       3.65566967283943e-13      7.92097389550928e-16      6.75280711328378e-09      6.24814704283536e-06      3.71106557808073e-09      0.207344119433529         8.9304636150131e-10       6.04114344335469e-09      1.2201116928345e-06       4.58564729364868e-08      5.68493667728374e-09      4.12288099121961e-09      1.60399128185644e-10      4.51056577705332e-14      -2.86049905443135e-18     -1.49396980281476e-15     2.81716301497699e-13      2.46283082284707e-14      0.779595777334207         
0.0355823863636364        300.067230838393          0.356234770007556         1.23504800970344          0.0125663240649057        1.66992072867889e-07      2.67656335118276e-07      0.000624047745124949      1.09590479352945e-09      5.08996424777821e-12      1.03643173905237e-10      2.40769057730193e-11      6.2149580588933e-12       9.66476694574879e-16      6.15307368199799e-13      3.12378398786473e-15      1.37738303078749e-08      1.22324281807035e-05      7.59348710384149e-09      0.207313824395682         1.74712939290114e-09      1.42862375713059e-08      2.48705856160453e-06      1.08008160309196e-07      1.29312866641238e-08      1.00237086899369e-08      4.13295399347832e-10      1.27320580645557e-13      -1.58346646314412e-18     -3.89295254566464e-17     1.01513607289924e-12      9.02402338189395e-14      0.779480479642391         
0.0356534090909091        300.14356189385           0.356387998723503         1.2345170018641           0.0125645556349246        4.17954212494255e-07      5.51135408954241e-07      0.000809387338504719      3.41656571480243e-09      1.77961172768005e-11      3.59739021152381e-10      9.07694620898439e-11      2.42146295540091e-11      4.23938982645355e-15      1.06906032780091e-12      1.37671702823276e-14      2.97041390020379e-08      2.51754364869292e-05      1.64323101472084e-08      0.20727096790359          3.59433371387085e-09      3.64783180071046e-08      5.35925810859327e-06      2.74546354288543e-07      3.15843909968418e-08      2.6421224926944e-08       1.1643049245404e-09       3.97089573890237e-13      3.50527156909631e-18      6.44058239322292e-15      4.18626764564177e-12      3.87280056755105e-13      0.779323161485258         
0.0357244318181818        300.31484554163           0.356676226333312         1.23351939714744          0.0125622090415147        1.07970606436032e-06      1.16432794761742e-06      0.00105581238184001       1.10307212756539e-08      6.44989434168488e-11      1.29340889051844e-09      3.54662542490381e-10      9.80212619231798e-11      1.97650996937123e-14      1.89922131523995e-12      6.4238755074077e-14       6.58425724105163e-08      5.31557740440107e-05      3.65373920735851e-08      0.207208090829308         7.59449121687531e-09      9.61642623856478e-08      1.18679476154341e-05      7.20588206264522e-07      7.95787252486073e-08      7.19646832770767e-08      3.39343556340427e-09      1.28320069551212e-12      2.4382389137439e-17       3.53140906635399e-14      1.78902681611484e-11      1.73129419238499e-12      0.779105525403292         
0.0357954545454545        300.698743970163          0.357248410151564         1.2315437414957           0.0125591023718982        2.82279766583789e-06      2.48953275002346e-06      0.00138322161734868       3.596916572701e-08        2.35971478952488e-10      4.6860134899206e-09       1.39289221754111e-09      3.96813203555769e-10      9.4797825636017e-14       3.44152397294259e-12      3.07939185271058e-13      1.47798598483913e-07      0.000113581319341385      8.21801076466526e-08      0.20711100435156          1.62811117821331e-08      2.56444389911823e-07      2.6604154379985e-05       1.91403853425924e-06      2.02948186207226e-07      1.98324146689598e-07      1.00028419069883e-08      4.20087560455774e-12      1.11422824506648e-16      1.64078974218168e-13      7.70443972699025e-11      7.80525028033842e-12      0.778798302782877         
0.0358309659090909        301.068978720299          0.357763502621325         1.22977061789686          0.0125571764217463        4.76087806400728e-06      3.72846944120886e-06      0.00158721733157791       6.96559731753057e-08      4.9327037207232e-10       9.71334428368517e-09      3.0427284943057e-09       8.79152040897878e-10      2.21180261241923e-13      4.7462588389542e-12       7.13252127911653e-13      2.27799654555818e-07      0.000170028252920457      1.2662540969425e-07       0.207038849373477         2.44935961733611e-08      4.37610192468109e-07      4.09496328941516e-05      3.25973853917035e-06      3.37199784968263e-07      3.45465412017327e-07      1.81713274380693e-08      8.19299244117837e-12      2.61563059827132e-16      3.96162630973561e-13      1.80096009194202e-10      1.88467563963692e-11      0.7785924278535           
0.0358664772727273        301.667758322495          0.358566081154574         1.22701802206147          0.0125549491279914        8.27529768113738e-06      5.68344111104341e-06      0.00182444089581002       1.41484671427809e-07      1.09293563976583e-09      2.13327314266022e-08      7.11539759580755e-09      2.10874880428355e-09      5.36751920574132e-13      6.67044789993651e-12      1.71820432703369e-12      3.58464123317284e-07      0.000259024546783258      1.99012231041214e-07      0.206939622654863         3.75952971816652e-08      7.70515816638557e-07      6.43234974801027e-05      5.72815395704344e-06      5.76428494181623e-07      6.22594449355216e-07      3.43312997982475e-08      1.68028692483081e-11      6.5541231759349e-16       1.03038342013999e-12      4.53389748305957e-10      4.92412296156857e-11      0.778335178082486         
0.0359019886363636        302.634655067329          0.359826761949605         1.22271906983279          0.0125523811466689        1.46355269423003e-05      8.7631637638254e-06       0.00209998218559708       2.94280353316004e-07      2.48743711924653e-09      4.81200964501804e-08      1.71514996056703e-08      5.24778591805222e-09      1.34369728697677e-12      9.57420400490495e-12      4.25253985151306e-12      5.71721178923148e-07      0.000399066838974846      3.16494781874601e-07      0.206799211238019         5.8588590555127e-08       1.38068029567556e-06      0.000102345190877464      1.02473221594115e-05      1.0019329425255e-06       1.14350632799084e-06      6.6234220328806e-08       3.54383463250625e-11      1.70165838923905e-15      2.76441083210191e-12      1.17645565914433e-09      1.32701680225737e-10      0.778008455348508         
0.0359375                 304.192370962496          0.361817058940331         1.21599309041212          0.0125494311995272        2.61096747090775e-05      1.3601924390065e-05       0.00241943647533355       6.18108235732981e-07      5.71889597738789e-09      1.0962253672313e-07       4.17917936003547e-08      1.32480837293714e-08      3.44845089918904e-12      1.41030569596996e-11      1.0718298764877e-11       9.19403470707899e-07      0.000618751986268804      5.06098421661919e-07      0.206595247271872         9.24587769558867e-08      2.49455623835309e-06      0.000164032211949255      1.84958647024887e-05      1.75653019004515e-06      2.11955498057986e-06      1.29007054402426e-07      7.60117876624614e-11      4.53740821263144e-15      7.51040143474061e-12      3.08231493331221e-09      3.60969122587105e-10      0.777586073179066         
0.0359730113636364        306.693214241838          0.364965800089482         1.20550211429553          0.0125460549514539        4.67065571023202e-05      2.1172658232192e-05       0.00278871933518739       1.30046793584562e-06      1.31654266902845e-08      2.49927780233508e-07      1.01909205561268e-07      3.35358852276915e-08      9.05791598091735e-12      2.1487200968068e-11       2.73560034143441e-11      1.48532881338718e-06      0.000961687173284019      8.09372301766734e-07      0.206292442884218         1.47685813014244e-07      4.51546175041973e-06      0.000263699846223914      3.34790504407191e-05      3.08851790531027e-06      3.93928444980605e-06      2.51869464372029e-07      1.65172361349901e-10      1.24534304943618e-14      2.05235482647322e-11      8.07589465303271e-09      9.81372214800908e-10      0.777030065492899         
0.0360085227272727        310.687183547763          0.369941940431218         1.18928673813987          0.0125421998288729        8.33923055688511e-05      3.29404968783053e-05      0.00321366325608381       2.72559425309423e-06      3.01756249581795e-08      5.66881485309838e-07      2.47130700372651e-07      8.45061636219264e-08      2.44152633281329e-11      3.42137351211266e-11      7.04695110544647e-11      2.40419549238216e-06      0.0014929284423867        1.28768919280131e-06      0.205835835062849         2.39178262470609e-07      8.14750848338664e-06      0.000423690984367848      6.04910997588525e-05      5.42258944542528e-06      7.30554837593294e-06      4.90361206901073e-07      3.63872647177504e-10      3.5456755805094e-14       5.63077601238208e-11      2.10377550856287e-08      2.65096840788634e-09      0.776285818510123         
0.0360440340909091        317.015541668203          0.377768787584789         1.16464636061001          0.0125377953807221        0.000147957238708292      5.10492426734743e-05      0.00369927732886454       5.66208147623758e-06      6.85118123128887e-08      1.27236196851724e-06      5.92610503142582e-07      2.10621300202012e-07      6.77713146722782e-11      5.76029007921583e-11      1.82801933461435e-10      3.89019873563268e-06      0.00230624223178762       2.02588648347742e-06      0.205141835887363         3.94270500424613e-07      1.45828160575428e-05      0.000677970100174749      0.000108628231727218      9.46700365021029e-06      1.34583922451696e-05      9.47448809631222e-07      8.15715463476041e-10      1.05740955392489e-13      1.55136917554821e-10      5.42004930079456e-08      7.07599875456903e-09      0.775276454282071         
0.0360617897727273        321.537780546026          0.383339196180598         1.1477225600238           0.0125353060351901        0.000198444649231782      6.37385389359075e-05      0.00396838566635431       8.28342673716758e-06      1.05498088861926e-07      1.94467900591958e-06      9.41337024672617e-07      3.42316896766315e-07      1.18019208350379e-10      7.80492644694658e-11      3.01322442534808e-10      4.9827334133498e-06       0.00287294947115264       2.53692382721445e-06      0.20465485500697          5.1673551069738e-07       1.96317108166234e-05      0.000860965206160671      0.000146683600350341      1.25909865405354e-05      1.84252232937195e-05      1.33134964375562e-06      1.27358388776136e-09      2.00971656743103e-13      2.7196760265219e-10       8.99279230776472e-08      1.1989751248433e-08       0.774626688924159         
0.0360795454545455        327.321676598875          0.390447650513214         1.12682722767912          0.0125325321924548        0.000267229520990448      7.96811220171377e-05      0.00425476513723744       1.22377815225799e-05      1.64757802406543e-07      3.01300686474366e-06      1.52231500186819e-06      5.69126857175108e-07      2.09806327032811e-10      1.08037807925348e-10      5.01956162817087e-10      6.40587899231722e-06      0.0035811312591199        3.17125110004091e-06      0.204039139225151         6.85536217399122e-07      2.65244326094249e-05      0.00109548040138756       0.000198968751958077      1.68091837666514e-05      2.5357787181444e-05       1.88339473745832e-06      2.03360502595226e-09      3.96057084693674e-13      4.91509756474943e-10      1.52429310412137e-07      2.07974100915671e-08      0.773852161925164         
0.0360973011363636        334.676342238455          0.399471393487333         1.10137309138505          0.0125293361551192        0.000360166554177118      9.95774951150498e-05      0.0045582566817238        1.81464834198239e-05      2.58745987805624e-07      4.69322005859877e-06      2.4800472991978e-06       9.55985024812222e-07      3.82396163809012e-10      1.52887392104826e-10      8.43450732949286e-10      8.25147625739118e-06      0.00445911608459919       3.94757379324984e-06      0.203263524636805         9.20741377993908e-07      3.58443523891466e-05      0.00139401972350901       0.000270225576253812      2.24608214973368e-05      3.49525662271354e-05      2.67000199749054e-06      3.30384636551238e-09      8.01523943844631e-13      9.03510689641733e-10      2.6054281996257e-07       3.6395655501049e-08       0.772929280107246         
0.0361150568181818        343.963073296905          0.410852323935779         1.0708641960087           0.0125254800189746        0.000484493179051796      0.000124211121395621      0.00487830918131247       2.68750894477224e-05      4.06009307522912e-07      7.30311563807263e-06      4.03852358551595e-06      1.60763447845335e-06      7.15365662615082e-10      2.21295333339003e-10      1.42676362385089e-09      1.06311894066183e-05      0.00553740148022935       4.88176594977514e-06      0.202291921122311         1.25251375470557e-06      4.83027481839482e-05      0.00177104804300488       0.000366404224341289      2.99632052880689e-05      4.80980313654781e-05      3.7786413687464e-06       5.44353602606747e-09      1.65758095083977e-12      1.67588337829989e-09      4.45035721547352e-07      6.3621041345049e-08       0.771832122428859         
0.0361328125              355.592460939643          0.425094147738231         1.03498729841162          0.012520565117576         0.000648884702047173      0.000154428004600335      0.00521393156628375       3.95971533968847e-05      6.33456206162251e-07      1.12979273507559e-05      6.53561813932052e-06      2.68852019646499e-06      1.37316116238929e-09      3.2775228351401e-10       2.42509410009154e-09      1.36770140844339e-05      0.00684724088154203       5.98395491637146e-06      0.201083837406454         1.72679667292043e-06      6.47354044111823e-05      0.00224279785160505       0.0004947631189496        3.98152201491933e-05      6.5895151545183e-05       5.32125255007214e-06      9.07724695952397e-09      3.49267603526202e-12      3.12213018716272e-09      7.54870182057955e-07      1.10328807334637e-07      0.770533302393695         
0.0361416903409091        362.470748466429          0.433516753388942         1.01487898701802          0.0125174050536125        0.000751102968075678      0.000172163925095702      0.00538891488648176       4.81409739147113e-05      7.93519122975679e-07      1.40874179642675e-05      8.34511678409834e-06      3.49445472245286e-06      1.95642407222646e-09      4.05506543454279e-10      3.19069601919309e-09      1.55278145879842e-05      0.00760938863330306       6.60551490413109e-06      0.200366274160596         2.04795401955405e-06      7.49190310738623e-05      0.00252404993810939       0.000575197925795055      4.59118000127006e-05      7.71698283305888e-05      6.31974022039857e-06      1.19011252620735e-08      5.24337409993463e-12      4.33358058770083e-09      9.88275551755878e-07      1.46107802697999e-07      0.769789178723419         
0.0361505681818182        370.159391187818          0.442931232284587         0.993307790159673         0.0125135161828635        0.000868833564091902      0.000191787281139068      0.00556749385755919       5.85413023415101e-05      9.95048834512531e-07      1.75812325752384e-05      1.06747331972432e-05      4.5556953038953e-06       2.8101079832525e-09       5.04908906089214e-10      4.20836467557274e-09      1.76245380391115e-05      0.00844690568406462       7.27311282970489e-06      0.199565246590622         2.4403834053431e-06       8.66170898359104e-05      0.00283868335029673       0.000668362230045946      5.29111778862911e-05      9.03293575436436e-05      7.50287093333229e-06      1.56999269436296e-08      7.9503447821357e-12       6.0606631531067e-09       1.29725154633154e-06      1.94058286025564e-07      0.768978380904895         
0.0361594460227273        378.726492842573          0.4534222176024           0.970325287235994         0.0125086346448963        0.0010038552298709        0.000213428327585157      0.00574941171134877       7.11372337516261e-05      1.2473679518683e-06       2.19324923557547e-05      1.36557614601257e-05      5.94448655682825e-06      4.08372013520654e-09      6.32655640153182e-10      5.56496355243926e-09      1.99915201594134e-05      0.00936373473471136       7.9853143957249e-06       0.198673754157026         2.92153283965767e-06      9.99899324889518e-05      0.00318950608110605       0.000775828379554096      6.09157255234706e-05      0.000105621129741626      8.8981289372984e-06       2.08119961472326e-08      1.21499878022615e-11      8.5161310392867e-09       1.70363529379997e-06      2.57870083236905e-07      0.768096876926394         
0.0361683238636364        388.240327734019          0.465075015659599         0.946013070415442         0.0125024073179598        0.00115801877878158       0.000237213569089627      0.00593438512377954       8.63107168403172e-05      1.56141508788297e-06      2.73193274003301e-05      1.74458204607022e-05      7.74988142406416e-06      6.01156693802671e-09      7.97682945105296e-10      7.37749888490942e-09      2.26530871581411e-05      0.010363412286892         8.73973369581162e-06      0.197684785043595         3.51349213403896e-06      0.000115199869531964      0.00357934193809154       0.000899261132973916      7.00325365827389e-05      0.000123308220892723      1.05353678693259e-05      2.76937176517321e-08      1.86924176497536e-11      1.19978301309309e-08      2.23451819632551e-06      3.42160556902669e-07      0.767140843164041         
0.0361772017045455        398.768304082922          0.477974443466489         0.920482359585498         0.0124943665112143        0.00133322356771845       0.000263263729175939      0.00612210832457708       0.000104487104316141      1.94988487843041e-06      3.3946564210792e-05       2.22319245154259e-05      1.00803319693118e-05      8.96684428608979e-09      1.0119999214346e-09       9.80591976604983e-09      2.56326798227236e-05      0.0114489862479021        9.53302502271536e-06      0.19659141561741          4.24426437260605e-06      0.000132407907412339      0.00401099508784726       0.00104040390034866       8.03724039020079e-05      0.000143666703213757      1.24466454135128e-05      3.69598973359441e-08      2.89336381286007e-11      1.6921135231498e-08       2.92314185460057e-06      4.52636726317721e-07      0.766106740906344         
0.0361860795454546        410.375875901998          0.492203623176078         0.893872013198427         0.0124838997017931        0.00153139022554399       0.00029169180466605       0.00631225804717874       0.000126134539311257      2.42734482551357e-06      4.20469055462412e-05      2.82332931532108e-05      1.30662606688258e-05      1.35428681959171e-08      1.2918691643545e-09       1.30706958625784e-08      2.89516881239544e-05      0.0126229481034983        1.03609217639435e-05      0.195386911887396         5.1493676079969e-06       0.000151770081892988      0.00448721443846554       0.00120106253535406       9.20486732686213e-05      0.000166982182498351      1.46659895189239e-05      4.94372347926337e-08      4.50539239072005e-11      2.38627936033511e-08      3.80984066917408e-06      5.96263187874559e-07      0.764991389752699         